8
Properties=species:S:1:pos:R:3:gradient_habohr:R:3 energy_ha=-197.8044024219673 label=0 basis=ccpvdz xc=pbe pbc="F F F"
B        0.00000000       0.00000000       0.00000000       0.04977139      -0.04617879       0.04793422
B        1.39454902       0.00000000       0.57793632      -0.07980809       0.10038053      -0.20797028
B       -1.23980586       0.63847348       0.57793632       0.11699197       0.09008140      -0.32597871
B       -0.29503787      -1.36298188       0.57793632       0.12802913       0.05891334      -0.25392728
B       -0.91652028       1.05107447      -0.57793632      -0.07496163      -0.14476153       0.29421520
B        0.33360178      -1.35405938      -0.57793632      -0.14305637       0.05050719       0.21558129
B        1.22118593       0.67340320      -0.57793632       0.00135808      -0.11826323       0.19026670
B        0.00000000       0.00000000       1.76852686       0.00167453       0.00932096       0.03987859
8
Properties=species:S:1:pos:R:3:gradient_habohr:R:3 energy_ha=-197.80405651237882 label=1 basis=ccpvdz xc=pbe pbc="F F F"
B        0.00000000       0.00000000       0.00000000       0.06259765      -0.02948490      -0.04691101
B        1.39454902       0.00000000       0.57793632      -0.08307303       0.11299557      -0.17258644
B       -1.23980586       0.63847348       0.57793632       0.12396349       0.10363001      -0.29342803
B       -0.29503787      -1.36298188       0.57793632       0.12214782       0.02840109      -0.23431229
B       -0.91652028       1.05107447      -0.57793632      -0.06151926      -0.13451944       0.32398453
B        0.33360178      -1.35405938      -0.57793632      -0.12864098       0.05085340       0.25328575
B        1.22118593       0.67340320      -0.57793632      -0.02609138      -0.12803465       0.20963225
B        0.00000000       0.00000000      -1.76852686      -0.00938540      -0.00384127      -0.03966492
8
Properties=species:S:1:pos:R:3:gradient_habohr:R:3 energy_ha=-197.78940961721568 label=2 basis=ccpvdz xc=pbe pbc="F F F"
B        0.00000000       0.00000000       0.00000000       0.02012884       0.00415111       0.04533859
B        1.56426467       0.00000000       0.76707951      -0.17314623      -0.45684257      -0.03131080
B       -1.28639407       0.89000800       0.76707951      -0.02855677       0.03799655      -0.00313890
B        1.09733549      -1.11479988       0.76707951       0.19037905       0.40857260      -0.01641887
B        1.35204241       0.78670534      -0.76707951       0.04074251      -0.41591265      -0.00839241
B       -1.55947611       0.12230377      -0.76707951      -0.00422355      -0.01953743      -0.03041897
B        1.50912003      -0.41168035      -0.76707951      -0.05045060       0.43845314       0.02476618
B        0.00000000       0.00000000       1.65943497       0.00512695       0.00311879       0.01957515
8
Properties=species:S:1:pos:R:3:gradient_habohr:R:3 energy_ha=-197.78568663012751 label=3 basis=ccpvdz xc=pbe pbc="F F F"
B        0.00000000       0.00000000       0.00000000       0.01859925       0.00626910      -0.04575356
B        1.56426467       0.00000000       0.76707951      -0.16943147      -0.41337599      -0.02689829
B       -1.28639407       0.89000800       0.76707951       0.01075826       0.01488688       0.02918247
B        1.09733549      -1.11479988       0.76707951       0.14939158       0.39123784       0.00821209
B        1.35204241       0.78670534      -0.76707951       0.06119564      -0.45284194       0.00601187
B       -1.55947611       0.12230377      -0.76707951      -0.04769379      -0.01402406       0.00533281
B        1.50912003      -0.41168035      -0.76707951      -0.03322070       0.48098927       0.04077769
B        0.00000000       0.00000000      -1.65943497       0.01040151      -0.01314173      -0.01686423
8
Properties=species:S:1:pos:R:3:gradient_habohr:R:3 energy_ha=-197.97949869808005 label=4 basis=ccpvdz xc=pbe pbc="F F F"
B        0.00000000       0.00000000       0.00000000       0.04193631       0.01319041       0.10479487
B        1.44049982       0.00000000       0.62933466      -0.08684775       0.04752113      -0.13568719
B       -0.98977135       1.04660996       0.62933466       0.01178722      -0.02578188      -0.03965914
B        0.53717385      -1.33659417       0.62933466       0.02696157       0.06346986      -0.00719266
B       -0.07159283       1.43871964      -0.62933466       0.00926150      -0.03954807       0.02799193
B       -0.99612492      -1.04056469      -0.62933466       0.00629387       0.04449363      -0.00857713
B        1.30824486       0.60293873      -0.62933466      -0.03072809      -0.09327663       0.12667677
B        0.00000000       0.00000000       1.54288351       0.02133529      -0.01006853      -0.06834789
8
Properties=species:S:1:pos:R:3:gradient_habohr:R:3 energy_ha=-197.96758603692945 label=5 basis=ccpvdz xc=pbe pbc="F F F"
B        0.00000000       0.00000000       0.00000000       0.03716761       0.04401784      -0.11353797
B        1.44049982       0.00000000       0.62933466      -0.06315985       0.06341599      -0.12829204
B       -0.98977135       1.04660996       0.62933466       0.03843340      -0.03689509      -0.01155690
B        0.53717385      -1.33659417       0.62933466       0.02049811       0.03343882      -0.00031557
B       -0.07159283       1.43871964      -0.62933466       0.03122915      -0.08336132       0.01783597
B       -0.99612492      -1.04056469      -0.62933466      -0.02274409       0.02425806       0.01448856
B        1.30824486       0.60293873      -0.62933466      -0.05660810      -0.06141236       0.14786526
B        0.00000000       0.00000000      -1.54288351       0.01518344       0.01653814       0.07351265
8
Properties=species:S:1:pos:R:3:gradient_habohr:R:3 energy_ha=-197.85484577959173 label=6 basis=ccpvdz xc=pbe pbc="F F F"
B        0.00000000       0.00000000       0.00000000      -0.10737415       0.10851313       0.03860499
B        1.37161985       0.00000000       0.70570569      -0.01742672      -0.00517762      -0.05460149
B       -0.33089580       1.33110818       0.70570569      -0.15715506      -0.23253873      -0.13156868
B       -1.30442302       0.42405376       0.70570569       0.23212465       0.13578736      -0.04406573
B       -0.03157067       1.37125647      -0.70570569       0.00188448      -0.05633124       0.11978142
B       -1.32313928      -0.36144635      -0.70570569       0.19813009      -0.13225973       0.03557631
B       -0.39391742      -1.31383792      -0.70570569      -0.13472194       0.18348773       0.02174589
B        0.00000000       0.00000000       1.79982425      -0.01546144      -0.00148098       0.01452856
8
Properties=species:S:1:pos:R:3:gradient_habohr:R:3 energy_ha=-197.8749741070512 label=7 basis=ccpvdz xc=pbe pbc="F F F"
B        0.00000000       0.00000000       0.00000000      -0.11577830       0.09939861      -0.02287649
B        1.37161985       0.00000000       0.70570569      -0.03659860      -0.00269032      -0.02145474
B       -0.33089580       1.33110818       0.70570569      -0.12888993      -0.19470209      -0.13258706
B       -1.30442302       0.42405376       0.70570569       0.22203026       0.09434451      -0.01640875
B       -0.03157067       1.37125647      -0.70570569      -0.01723821      -0.04324875       0.15612381
B       -1.32313928      -0.36144635      -0.70570569       0.23327278      -0.11675753       0.00664046
B       -0.39391742      -1.31383792      -0.70570569      -0.15750756       0.18264993       0.06298689
B        0.00000000       0.00000000      -1.79982425       0.00070986      -0.01899474      -0.03242306
8
Properties=species:S:1:pos:R:3:gradient_habohr:R:3 energy_ha=-198.06659991204407 label=8 basis=ccpvdz xc=pbe pbc="F F F"
B        0.00000000       0.00000000       0.00000000      -0.02434174       0.07713759       0.03919858
B        1.53784657       0.00000000       0.86694046       0.04933423      -0.00856488      -0.01220397
B        0.54925463       1.43641618       0.86694046      -0.00404492      -0.01859815       0.04300021
B       -1.20328511       0.95764139       0.86694046      -0.02111364       0.00607646      -0.00227971
B        0.06791678       1.53634612      -0.86694046       0.02002867      -0.00760773      -0.04765982
B       -1.41075765       0.61215598      -0.86694046      -0.02007407       0.02092455      -0.00829207
B       -1.00984839      -1.15981823      -0.86694046      -0.00038660      -0.05311228      -0.00623675
B        0.00000000       0.00000000       1.70411151       0.00059803      -0.01625514      -0.00552658
8
Properties=species:S:1:pos:R:3:gradient_habohr:R:3 energy_ha=-198.06715913309074 label=9 basis=ccpvdz xc=pbe pbc="F F F"
B        0.00000000       0.00000000       0.00000000      -0.04019056       0.07133122      -0.04125078
B        1.53784657       0.00000000       0.86694046       0.03514853      -0.03018044       0.00526102
B        0.54925463       1.43641618       0.86694046       0.00922625       0.02558629       0.01337059
B       -1.20328511       0.95764139       0.86694046      -0.01544907      -0.02149050       0.04503128
B        0.06791678       1.53634612      -0.86694046       0.00203576       0.01279755      -0.00305619
B       -1.41075765       0.61215598      -0.86694046       0.02068442       0.00030520      -0.03689015
B       -1.00984839      -1.15981823      -0.86694046      -0.02649630      -0.05054260       0.01026471
B        0.00000000       0.00000000      -1.70411151       0.01504105      -0.00780661       0.00726931
8
Properties=species:S:1:pos:R:3:gradient_habohr:R:3 energy_ha=-197.7781403721875 label=10 basis=ccpvdz xc=pbe pbc="F F F"
B        0.00000000       0.00000000       0.00000000      -0.05149840       0.05266252       0.09865328
B        1.25910777       0.00000000       1.10512379      -0.19590778      -0.00749358       0.05010245
B        0.17300795       1.24716504       1.10512379      -0.09298023      -0.29201545       0.11378046
B       -1.12801409       0.55940737       1.10512379       0.25591722      -0.07448483       0.07057608
B       -0.47002458       1.16808787      -1.10512379       0.02670502      -0.01867779      -0.02083685
B       -1.22159229      -0.30506501      -1.10512379       0.05953910      -0.06264346       0.01113089
B       -0.09788092      -1.25529746      -1.10512379      -0.05120558       0.04964014      -0.00034788
B        0.00000000       0.00000000       1.50811846       0.04943050       0.35301220      -0.32305759
8
Properties=species:S:1:pos:R:3:gradient_habohr:R:3 energy_ha=-197.78267810603222 label=11 basis=ccpvdz xc=pbe pbc="F F F"
B        0.00000000       0.00000000       0.00000000      -0.04837169       0.04820092      -0.09860929
B        1.25910777       0.00000000       1.10512379      -0.00030564      -0.01299797      -0.00287247
B        0.17300795       1.24716504       1.10512379      -0.06773392      -0.03527581      -0.01050504
B       -1.12801409       0.55940737       1.10512379       0.08968037       0.00894272       0.02638250
B       -0.47002458       1.16808787      -1.10512379       0.08886709      -0.21093458      -0.08204682
B       -1.22159229      -0.30506501      -1.10512379       0.30283052       0.03043308      -0.10182651
B       -0.09788092      -1.25529746      -1.10512379      -0.02319232       0.23686210      -0.04440648
B        0.00000000       0.00000000      -1.50811846      -0.34177374      -0.06523124       0.31388312
8
Properties=species:S:1:pos:R:3:gradient_habohr:R:3 energy_ha=-198.01271684287005 label=12 basis=ccpvdz xc=pbe pbc="F F F"
B        0.00000000       0.00000000       0.00000000       0.01420789      -0.00062836       0.11564213
B        1.44938495       0.00000000       0.82049804      -0.02909128      -0.00335156       0.00388862
B       -0.85855560       1.16773242       0.82049804       0.00872374      -0.02425850       0.00959293
B       -0.43245812      -1.38336427       0.82049804       0.01439794       0.02189912       0.01258570
B       -0.56278110       1.33566244      -0.82049804      -0.01320249       0.01158386      -0.00214267
B       -0.74274089      -1.24460945      -0.82049804      -0.00470714       0.00386260      -0.00427892
B        1.44274091       0.13861963      -0.82049804       0.00910538      -0.01202878       0.00473874
B        0.00000000       0.00000000       1.50701259       0.00056614       0.00292167      -0.14002689
8
Properties=species:S:1:pos:R:3:gradient_habohr:R:3 energy_ha=-198.01271712734345 label=13 basis=ccpvdz xc=pbe pbc="F F F"
B        0.00000000       0.00000000       0.00000000       0.01408298       0.00197207      -0.11564175
B        1.44938495       0.00000000       0.82049804       0.00790739       0.01284996      -0.00473686
B       -0.85855560       1.16773242       0.82049804      -0.00431394      -0.00429212       0.00428855
B       -0.43245812      -1.38336427       0.82049804      -0.01203678      -0.01279539       0.00213146
B       -0.56278110       1.33566244      -0.82049804       0.01642970      -0.02041535      -0.01259433
B       -0.74274089      -1.24460945      -0.82049804       0.00636885       0.02498222      -0.00958227
B        1.44274091       0.13861963      -0.82049804      -0.02927936       0.00055189      -0.00389119
B        0.00000000       0.00000000      -1.50701259       0.00084130      -0.00285337       0.14002670
8
Properties=species:S:1:pos:R:3:gradient_habohr:R:3 energy_ha=-197.89396577261556 label=14 basis=ccpvdz xc=pbe pbc="F F F"
B        0.00000000       0.00000000       0.00000000       0.02852389      -0.00746284       0.04517192
B        1.35478132       0.00000000       1.10565044      -0.07645508      -0.01017710       0.05147577
B       -1.29860140       0.38609175       1.10565044       0.05858501      -0.01693139       0.07328607
B       -0.45556379      -1.27588952       1.10565044       0.02069497       0.07769976       0.06748914
B       -0.95407391       0.96186039      -1.10565044      -0.01926779       0.00330890      -0.03541929
B        0.64039513      -1.19387039      -1.10565044      -0.00952626      -0.03663504      -0.03088519
B        1.22666964       0.57507741      -1.10565044       0.03512732       0.05141753      -0.02027410
B        0.00000000       0.00000000       1.67597361      -0.03768270      -0.06121936      -0.15084441
8
Properties=species:S:1:pos:R:3:gradient_habohr:R:3 energy_ha=-197.89367478352298 label=15 basis=ccpvdz xc=pbe pbc="F F F"
B        0.00000000       0.00000000       0.00000000       0.01579591      -0.02134435      -0.04480143
B        1.35478132       0.00000000       1.10565044       0.01789533       0.01189844       0.03955756
B       -1.29860140       0.38609175       1.10565044      -0.02681425       0.02974006       0.04326811
B       -0.45556379      -1.27588952       1.10565044      -0.01809409      -0.05177593       0.00817179
B       -0.95407391       0.96186039      -1.10565044       0.05789388      -0.03812720      -0.06690002
B        0.64039513      -1.19387039      -1.10565044      -0.03107991       0.06615365      -0.04326116
B        1.22666964       0.57507741      -1.10565044      -0.08012223      -0.01661428      -0.08875564
B        0.00000000       0.00000000      -1.67597361       0.06452457       0.02006960       0.15272035
8
Properties=species:S:1:pos:R:3:gradient_habohr:R:3 energy_ha=-197.9124385887708 label=16 basis=ccpvdz xc=pbe pbc="F F F"
B        0.00000000       0.00000000       0.00000000      -0.03383848       0.00625064       0.13535459
B        1.57412437       0.00000000       0.82293332       0.03337048      -0.01582886       0.02227682
B       -0.79319662       1.35967153       0.82293332       0.00799796       0.02355554       0.02442802
B       -1.21739739      -0.99790337       0.82293332      -0.02036425      -0.00921214       0.02940173
B        1.00059801       1.21518359      -0.82293332       0.01290338       0.02816244      -0.03711437
B       -1.55382988       0.25195285      -0.82293332      -0.03040777       0.00076991      -0.04418398
B       -0.00348741      -1.57412051      -0.82293332       0.02827949      -0.02933870      -0.02853087
B        0.00000000       0.00000000       1.50504986       0.00205858      -0.00435888      -0.10163059
8
Properties=species:S:1:pos:R:3:gradient_habohr:R:3 energy_ha=-197.91233829108089 label=17 basis=ccpvdz xc=pbe pbc="F F F"
B        0.00000000       0.00000000       0.00000000      -0.03268766       0.00778049      -0.13650484
B        1.57412437       0.00000000       0.82293332       0.02825094      -0.01817732       0.03114578
B       -0.79319662       1.35967153       0.82293332       0.00810106       0.03653060       0.03459735
B       -1.21739739      -0.99790337       0.82293332      -0.02397950      -0.02310267       0.04490804
B        1.00059801       1.21518359      -0.82293332       0.01114089       0.03002789      -0.02451998
B       -1.55382988       0.25195285      -0.82293332      -0.01531724      -0.00870054      -0.03056334
B       -0.00348741      -1.57412051      -0.82293332       0.01933060      -0.02675355      -0.02046942
B        0.00000000       0.00000000      -1.50504986       0.00516101       0.00239548       0.10140664
8
Properties=species:S:1:pos:R:3:gradient_habohr:R:3 energy_ha=-197.86519297741592 label=18 basis=ccpvdz xc=pbe pbc="F F F"
B        0.00000000       0.00000000       0.00000000      -0.01420184      -0.03535013       0.07187844
B        1.37805506       0.00000000       1.01700590      -0.07363520      -0.00515584       0.05017027
B       -1.13514011       0.78134032       1.01700590       0.06471311      -0.02738387       0.04808217
B       -0.70754615      -1.18254564       1.01700590       0.03632382       0.06708309       0.05910838
B        0.83838678       1.09368339      -1.01700590      -0.00485967       0.01453625      -0.01942740
B       -1.31070626      -0.42554068      -1.01700590      -0.02662029       0.01441681      -0.03340998
B        0.50805894      -1.28098083      -1.01700590       0.03723998      -0.00765634      -0.01601194
B        0.00000000       0.00000000       1.57740095      -0.01896015      -0.02048997      -0.16038897
8
Properties=species:S:1:pos:R:3:gradient_habohr:R:3 energy_ha=-197.86734234850917 label=19 basis=ccpvdz xc=pbe pbc="F F F"
B        0.00000000       0.00000000       0.00000000      -0.01805127      -0.03998703      -0.07063030
B        1.37805506       0.00000000       1.01700590       0.00670228       0.00153651       0.02560262
B       -1.13514011       0.78134032       1.01700590       0.00491272       0.04350254       0.01301768
B       -0.70754615      -1.18254564       1.01700590       0.00110161      -0.02887521       0.02972168
B        0.83838678       1.09368339      -1.01700590      -0.04921388      -0.04876150      -0.05010502
B       -1.31070626      -0.42554068      -1.01700590       0.06627482       0.02527825      -0.05677107
B        0.50805894      -1.28098083      -1.01700590      -0.01420681       0.07785424      -0.05070010
B        0.00000000       0.00000000      -1.57740095       0.00247986      -0.03054775       0.15986555
8
Properties=species:S:1:pos:R:3:gradient_habohr:R:3 energy_ha=-197.99427294460526 label=20 basis=ccpvdz xc=pbe pbc="F F F"
B        0.00000000       0.00000000       0.00000000       0.01540111      -0.03005939       0.06461420
B        1.36735851       0.00000000       0.90354144      -0.06689158       0.00482218       0.04045109
B       -1.14645924       0.74518490       0.90354144       0.02682035      -0.04918907       0.05146932
B       -0.68073994      -1.18585937       0.90354144       0.02023366       0.06950460       0.05978171
B       -0.52458383       1.26272765      -0.90354144       0.00987765      -0.00166277      -0.02491808
B       -0.24832668      -1.34462008      -0.90354144      -0.02481423       0.00478105      -0.03304063
B        1.35628115      -0.17369731      -0.90354144       0.03134025       0.01550556      -0.02113009
B        0.00000000       0.00000000       1.59027283      -0.01196612      -0.01370265      -0.13722802
8
Properties=species:S:1:pos:R:3:gradient_habohr:R:3 energy_ha=-197.9901610046409 label=21 basis=ccpvdz xc=pbe pbc="F F F"
B        0.00000000       0.00000000       0.00000000       0.00336123      -0.03712261      -0.06450785
B        1.36735851       0.00000000       0.90354144      -0.01154627       0.01894545       0.02818298
B       -1.14645924       0.74518490       0.90354144      -0.01369984       0.02229885       0.02625560
B       -0.68073994      -1.18585937       0.90354144      -0.00055256      -0.02047466       0.02285777
B       -0.52458383       1.26272765      -0.90354144       0.04353833      -0.03522963      -0.04465386
B       -0.24832668      -1.34462008      -0.90354144       0.03365826       0.06221909      -0.04627024
B        1.35628115      -0.17369731      -0.90354144      -0.06907434      -0.00379302      -0.05987200
B        0.00000000       0.00000000      -1.59027283       0.01431566      -0.00684261       0.13800731
8
Properties=species:S:1:pos:R:3:gradient_habohr:R:3 energy_ha=-197.98697462574538 label=22 basis=ccpvdz xc=pbe pbc="F F F"
B        0.00000000       0.00000000       0.00000000       0.12303248       0.09061063       0.03495350
B        1.32459425       0.00000000       0.76278708      -0.12654218       0.07064777      -0.08287478
B        0.40264521       1.26191393       0.76278708       0.02804087      -0.14152311      -0.08160391
B       -1.06789597      -0.78367604       0.76278708       0.05183427       0.03802784      -0.06169548
B        1.32442286       0.02130767      -0.76278708      -0.08490179       0.00086706       0.08762277
B        0.38229373       1.26822768      -0.76278708      -0.02141310      -0.08212463       0.08834014
B       -1.05515143      -0.80075302      -0.76278708       0.02852991       0.02159530       0.04450182
B        0.00000000       0.00000000       1.67700766       0.00141960       0.00189947      -0.02924361
8
Properties=species:S:1:pos:R:3:gradient_habohr:R:3 energy_ha=-197.9869760541876 label=23 basis=ccpvdz xc=pbe pbc="F F F"
B        0.00000000       0.00000000       0.00000000       0.12278918       0.09094060      -0.03495409
B        1.32459425       0.00000000       0.76278708      -0.08486514       0.00326910      -0.08842330
B        0.40264521       1.26191393       0.76278708      -0.02372093      -0.08146708      -0.08753627
B       -1.06789597      -0.78367604       0.76278708       0.02876110       0.02128556      -0.04449931
B        1.32442286       0.02130767      -0.76278708      -0.12757813       0.06770345       0.08157461
B        0.38229373       1.26822768      -0.76278708       0.03115121      -0.14138002       0.08290130
B       -1.05515143      -0.80075302      -0.76278708       0.05116846       0.03892718       0.06169404
B        0.00000000       0.00000000      -1.67700766       0.00229458       0.00072157       0.02924284
8
Properties=species:S:1:pos:R:3:gradient_habohr:R:3 energy_ha=-197.78808074612886 label=24 basis=ccpvdz xc=pbe pbc="F F F"
B        0.00000000       0.00000000       0.00000000      -0.03384723       0.02773903       0.04817962
B        1.39546343       0.00000000       0.98495092      -0.02551143      -0.00811979       0.01497369
B       -0.98275529       0.99071198       0.98495092      -0.06768108      -0.33169827       0.01339903
B       -1.37805493      -0.21973342       0.98495092       0.14556466       0.30071424       0.04322175
B        0.22439905       1.37730288      -0.98495092       0.00534653      -0.00627618      -0.01777293
B       -1.13585193      -0.81065318      -0.98495092       0.27117057      -0.13848217      -0.03509244
B       -0.00472585      -1.39545542      -0.98495092      -0.26299672       0.13364519      -0.00194682
B        0.00000000       0.00000000       1.69201097      -0.03204533       0.02247789      -0.06496257
8
Properties=species:S:1:pos:R:3:gradient_habohr:R:3 energy_ha=-197.7910476308617 label=25 basis=ccpvdz xc=pbe pbc="F F F"
B        0.00000000       0.00000000       0.00000000      -0.02602949       0.00313304      -0.04853976
B        1.39546343       0.00000000       0.98495092       0.00098606       0.00021068       0.00996109
B       -0.98275529       0.99071198       0.98495092      -0.10402982      -0.28926503       0.02423178
B       -1.37805493      -0.21973342       0.98495092       0.10241712       0.27684039       0.03321011
B        0.22439905       1.37730288      -0.98495092       0.01429494      -0.03284441      -0.03289602
B       -1.13585193      -0.81065318      -0.98495092       0.31908047      -0.10067825      -0.05610320
B       -0.00472585      -1.39545542      -0.98495092      -0.26785874       0.17167923       0.01239606
B        0.00000000       0.00000000      -1.69201097      -0.03886103      -0.02907556       0.05774001
8
Properties=species:S:1:pos:R:3:gradient_habohr:R:3 energy_ha=-197.95182499421557 label=26 basis=ccpvdz xc=pbe pbc="F F F"
B        0.00000000       0.00000000       0.00000000       0.01727147       0.02965432       0.05622121
B        1.50719664       0.00000000       0.58258753      -0.03434525      -0.02256150      -0.05025560
B        0.48363899       1.42749257       0.58258753      -0.12606740       0.00220066      -0.25922395
B       -1.01224815      -1.11668948       0.58258753       0.00648654      -0.03818991      -0.01590165
B       -0.10241078       1.50371332      -0.58258753       0.15154355      -0.02673345       0.22347936
B       -1.45705569       0.38552617      -0.58258753      -0.00644751       0.00813312      -0.01194005
B        1.18288876      -0.93403206      -0.58258753      -0.01077116       0.04365919       0.02257152
B        0.00000000       0.00000000       1.76911365       0.00232993       0.00383784       0.03504841
8
Properties=species:S:1:pos:R:3:gradient_habohr:R:3 energy_ha=-197.95875446050863 label=27 basis=ccpvdz xc=pbe pbc="F F F"
B        0.00000000       0.00000000       0.00000000       0.00251415       0.03119388      -0.04317606
B        1.50719664       0.00000000       0.58258753      -0.01352037      -0.04295187      -0.04178637
B        0.48363899       1.42749257       0.58258753      -0.15896757       0.01317898      -0.22512521
B       -1.01224815      -1.11668948       0.58258753       0.03118045      -0.00847776       0.02101965
B       -0.10241078       1.50371332      -0.58258753       0.13539898      -0.03614004       0.25104807
B       -1.45705569       0.38552617      -0.58258753       0.00447029       0.02564438       0.01021978
B        1.18288876      -0.93403206      -0.58258753       0.00874324       0.01594366       0.06949568
B        0.00000000       0.00000000      -1.76911365      -0.00981963       0.00160906      -0.04169632
8
Properties=species:S:1:pos:R:3:gradient_habohr:R:3 energy_ha=-197.94222905851444 label=28 basis=ccpvdz xc=pbe pbc="F F F"
B        0.00000000       0.00000000       0.00000000      -0.01465979       0.00096212       0.12214720
B        1.57617396       0.00000000       0.72904590       0.01771131      -0.00044167      -0.00650049
B       -0.01629080       1.57608977       0.72904590       0.00522124       0.02322778       0.00691904
B       -1.25703288      -0.95089048       0.72904590      -0.02386688      -0.01396533       0.01659918
B       -1.55767536       0.24077341      -0.72904590      -0.01441622       0.01277492      -0.02681083
B       -0.22466094      -1.56008071      -0.72904590       0.01863889      -0.02148911      -0.01790235
B        1.38753611       0.74770844      -0.72904590       0.01345047       0.00506097      -0.02255994
B        0.00000000       0.00000000       1.52827601      -0.00207827      -0.00612933      -0.07189164
8
Properties=species:S:1:pos:R:3:gradient_habohr:R:3 energy_ha=-197.95054945638518 label=29 basis=ccpvdz xc=pbe pbc="F F F"
B        0.00000000       0.00000000       0.00000000      -0.01216793      -0.00604683      -0.11908814
B        1.57617396       0.00000000       0.72904590       0.01631408      -0.02386250       0.00607236
B       -0.01629080       1.57608977       0.72904590      -0.00293135       0.02269478       0.01144787
B       -1.25703288      -0.95089048       0.72904590      -0.01197058      -0.00765121       0.05655394
B       -1.55767536       0.24077341      -0.72904590      -0.02387932       0.00908095      -0.02484064
B       -0.22466094      -1.56008071      -0.72904590       0.01445153      -0.01805935      -0.01049134
B        1.38753611       0.74770844      -0.72904590       0.01970638       0.02281168       0.00970161
B        0.00000000       0.00000000      -1.52827601       0.00047811       0.00103356       0.07064447
8
Properties=species:S:1:pos:R:3:gradient_habohr:R:3 energy_ha=-197.98128655909477 label=30 basis=ccpvdz xc=pbe pbc="F F F"
B        0.00000000       0.00000000       0.00000000       0.05297843      -0.00904334       0.06323193
B        1.42951835       0.00000000       0.65093164      -0.04749793       0.00774028      -0.04350436
B       -0.73178012       1.22801489       0.65093164       0.00484050      -0.03017980      -0.04718394
B       -0.37769198      -1.37872096       0.65093164       0.01513653       0.03686696      -0.05775857
B        1.15753998       0.83882293      -0.65093164      -0.02963876      -0.02378279       0.02959796
B       -1.31313585       0.56497518      -0.65093164       0.03165590      -0.00937455       0.03359144
B        0.50318290      -1.33803202      -0.65093164      -0.02672656       0.01958620       0.02506973
B        0.00000000       0.00000000       1.67669703      -0.00074746       0.00818702      -0.00304410
8
Properties=species:S:1:pos:R:3:gradient_habohr:R:3 energy_ha=-197.9811915768258 label=31 basis=ccpvdz xc=pbe pbc="F F F"