8
Lattice="10.0 0.0 0.0 0.0 10.0 0.0 0.0 0.0 10.0" Properties=species:S:1:pos:R:3 pars="(0, '+', 1.537846574641697, 0.8669404567885372, 1.704111508768542, 1.5266183992453783, 1.2055725978002068, 1.2638112003689252)" energy_hf=-196.83668430052154 pbc="F F F"
B        0.00000000       0.00000000       0.00000000
B        1.53784657       0.00000000       0.86694046
B        0.54925463       1.43641618       0.86694046
B       -1.20328511       0.95764139       0.86694046
B        0.06791678       1.53634612      -0.86694046
B       -1.41075765       0.61215598      -0.86694046
B       -1.00984839      -1.15981823      -0.86694046
B        0.00000000       0.00000000       1.70411151
8
Lattice="10.0 0.0 0.0 0.0 10.0 0.0 0.0 0.0 10.0" Properties=species:S:1:pos:R:3 pars="(0, '-', 1.537846574641697, 0.8669404567885372, 1.704111508768542, 1.5266183992453783, 1.2055725978002068, 1.2638112003689252)" energy_hf=-196.83429507727868 pbc="F F F"
B        0.00000000       0.00000000       0.00000000
B        1.53784657       0.00000000       0.86694046
B        0.54925463       1.43641618       0.86694046
B       -1.20328511       0.95764139       0.86694046
B        0.06791678       1.53634612      -0.86694046
B       -1.41075765       0.61215598      -0.86694046
B       -1.00984839      -1.15981823      -0.86694046
B        0.00000000       0.00000000      -1.70411151
8
Lattice="10.0 0.0 0.0 0.0 10.0 0.0 0.0 0.0 10.0" Properties=species:S:1:pos:R:3 pars="(1, '+', 1.449384946594269, 0.8204980365508024, 1.5070125944199677, 1.9695711647453729, 2.2047794804272933, 2.204621380332041)" energy_hf=-196.80366714557684 pbc="F F F"
B        0.00000000       0.00000000       0.00000000
B        1.44938495       0.00000000       0.82049804
B       -0.85855560       1.16773242       0.82049804
B       -0.43245812      -1.38336427       0.82049804
B       -0.56278110       1.33566244      -0.82049804
B       -0.74274089      -1.24460945      -0.82049804
B        1.44274091       0.13861963      -0.82049804
B        0.00000000       0.00000000       1.50701259
8
Lattice="10.0 0.0 0.0 0.0 10.0 0.0 0.0 0.0 10.0" Properties=species:S:1:pos:R:3 pars="(1, '-', 1.449384946594269, 0.8204980365508024, 1.5070125944199677, 1.9695711647453729, 2.2047794804272933, 2.204621380332041)" energy_hf=-196.80368203855446 pbc="F F F"
B        0.00000000       0.00000000       0.00000000
B        1.44938495       0.00000000       0.82049804
B       -0.85855560       1.16773242       0.82049804
B       -0.43245812      -1.38336427       0.82049804
B       -0.56278110       1.33566244      -0.82049804
B       -0.74274089      -1.24460945      -0.82049804
B        1.44274091       0.13861963      -0.82049804
B        0.00000000       0.00000000      -1.50701259
8
Lattice="10.0 0.0 0.0 0.0 10.0 0.0 0.0 0.0 10.0" Properties=species:S:1:pos:R:3 pars="(2, '+', 1.5741243720173603, 0.8229333220379231, 1.5050498632555513, 0.8819412872483269, 2.0989008950580454, 1.7293313364395728)" energy_hf=-196.65631351809031 pbc="F F F"
B        0.00000000       0.00000000       0.00000000
B        1.57412437       0.00000000       0.82293332
B       -0.79319662       1.35967153       0.82293332
B       -1.21739739      -0.99790337       0.82293332
B        1.00059801       1.21518359      -0.82293332
B       -1.55382988       0.25195285      -0.82293332
B       -0.00348741      -1.57412051      -0.82293332
B        0.00000000       0.00000000       1.50504986
8
Lattice="10.0 0.0 0.0 0.0 10.0 0.0 0.0 0.0 10.0" Properties=species:S:1:pos:R:3 pars="(2, '-', 1.5741243720173603, 0.8229333220379231, 1.5050498632555513, 0.8819412872483269, 2.0989008950580454, 1.7293313364395728)" energy_hf=-196.66027657988025 pbc="F F F"
B        0.00000000       0.00000000       0.00000000
B        1.57412437       0.00000000       0.82293332
B       -0.79319662       1.35967153       0.82293332
B       -1.21739739      -0.99790337       0.82293332
B        1.00059801       1.21518359      -0.82293332
B       -1.55382988       0.25195285      -0.82293332
B       -0.00348741      -1.57412051      -0.82293332
B        0.00000000       0.00000000      -1.50504986
8
Lattice="10.0 0.0 0.0 0.0 10.0 0.0 0.0 0.0 10.0" Properties=species:S:1:pos:R:3 pars="(3, '+', 1.367358514462254, 0.9035414406079048, 1.5902728337809384, 1.9645392549124385, 2.565225776352745, 1.6260448381953299)" energy_hf=-196.80134899783633 pbc="F F F"
B        0.00000000       0.00000000       0.00000000
B        1.36735851       0.00000000       0.90354144
B       -1.14645924       0.74518490       0.90354144
B       -0.68073994      -1.18585937       0.90354144
B       -0.52458383       1.26272765      -0.90354144
B       -0.24832668      -1.34462008      -0.90354144
B        1.35628115      -0.17369731      -0.90354144
B        0.00000000       0.00000000       1.59027283
8
Lattice="10.0 0.0 0.0 0.0 10.0 0.0 0.0 0.0 10.0" Properties=species:S:1:pos:R:3 pars="(3, '-', 1.367358514462254, 0.9035414406079048, 1.5902728337809384, 1.9645392549124385, 2.565225776352745, 1.6260448381953299)" energy_hf=-196.79257138203556 pbc="F F F"
B        0.00000000       0.00000000       0.00000000
B        1.36735851       0.00000000       0.90354144
B       -1.14645924       0.74518490       0.90354144
B       -0.68073994      -1.18585937       0.90354144
B       -0.52458383       1.26272765      -0.90354144
B       -0.24832668      -1.34462008      -0.90354144
B        1.35628115      -0.17369731      -0.90354144
B        0.00000000       0.00000000      -1.59027283
8
Lattice="10.0 0.0 0.0 0.0 10.0 0.0 0.0 0.0 10.0" Properties=species:S:1:pos:R:3 pars="(4, '+', 1.32459425456691, 0.7627870776000839, 1.6770076586260818, 0.01608687991962587, 1.2619326701133127, 2.5127450768576884)" energy_hf=-196.78602465507797 pbc="F F F"
B        0.00000000       0.00000000       0.00000000
B        1.32459425       0.00000000       0.76278708
B        0.40264521       1.26191393       0.76278708
B       -1.06789597      -0.78367604       0.76278708
B        1.32442286       0.02130767      -0.76278708
B        0.38229373       1.26822768      -0.76278708
B       -1.05515143      -0.80075302      -0.76278708
B        0.00000000       0.00000000       1.67700766
8
Lattice="10.0 0.0 0.0 0.0 10.0 0.0 0.0 0.0 10.0" Properties=species:S:1:pos:R:3 pars="(4, '-', 1.32459425456691, 0.7627870776000839, 1.6770076586260818, 0.01608687991962587, 1.2619326701133127, 2.5127450768576884)" energy_hf=-196.78602727708494 pbc="F F F"
B        0.00000000       0.00000000       0.00000000
B        1.32459425       0.00000000       0.76278708
B        0.40264521       1.26191393       0.76278708
B       -1.06789597      -0.78367604       0.76278708
B        1.32442286       0.02130767      -0.76278708
B        0.38229373       1.26822768      -0.76278708
B       -1.05515143      -0.80075302      -0.76278708
B        0.00000000       0.00000000      -1.67700766
8
Lattice="10.0 0.0 0.0 0.0 10.0 0.0 0.0 0.0 10.0" Properties=species:S:1:pos:R:3 pars="(5, '+', 1.5761739628170615, 0.7290459032912744, 1.528276012066614, 2.98823408138347, 1.5811321739401323, 2.2080808481837373)" energy_hf=-196.68775088295115 pbc="F F F"
B        0.00000000       0.00000000       0.00000000
B        1.57617396       0.00000000       0.72904590
B       -0.01629080       1.57608977       0.72904590
B       -1.25703288      -0.95089048       0.72904590
B       -1.55767536       0.24077341      -0.72904590
B       -0.22466094      -1.56008071      -0.72904590
B        1.38753611       0.74770844      -0.72904590
B        0.00000000       0.00000000       1.52827601
8
Lattice="10.0 0.0 0.0 0.0 10.0 0.0 0.0 0.0 10.0" Properties=species:S:1:pos:R:3 pars="(5, '-', 1.5761739628170615, 0.7290459032912744, 1.528276012066614, 2.98823408138347, 1.5811321739401323, 2.2080808481837373)" energy_hf=-196.6985873610761 pbc="F F F"
B        0.00000000       0.00000000       0.00000000
B        1.57617396       0.00000000       0.72904590
B       -0.01629080       1.57608977       0.72904590
B       -1.25703288      -0.95089048       0.72904590
B       -1.55767536       0.24077341      -0.72904590
B       -0.22466094      -1.56008071      -0.72904590
B        1.38753611       0.74770844      -0.72904590
B        0.00000000       0.00000000      -1.52827601
8
Lattice="10.0 0.0 0.0 0.0 10.0 0.0 0.0 0.0 10.0" Properties=species:S:1:pos:R:3 pars="(6, '+', 1.4295183542744065, 0.6509316395343545, 1.6766970325059487, 0.6270853000275589, 2.108199301868482, 2.3368057241725193)" energy_hf=-196.76181720397614 pbc="F F F"
B        0.00000000       0.00000000       0.00000000
B        1.42951835       0.00000000       0.65093164
B       -0.73178012       1.22801489       0.65093164
B       -0.37769198      -1.37872096       0.65093164
B        1.15753998       0.83882293      -0.65093164
B       -1.31313585       0.56497518      -0.65093164
B        0.50318290      -1.33803202      -0.65093164
B        0.00000000       0.00000000       1.67669703
8
Lattice="10.0 0.0 0.0 0.0 10.0 0.0 0.0 0.0 10.0" Properties=species:S:1:pos:R:3 pars="(6, '-', 1.4295183542744065, 0.6509316395343545, 1.6766970325059487, 0.6270853000275589, 2.108199301868482, 2.3368057241725193)" energy_hf=-196.76175627153742 pbc="F F F"
B        0.00000000       0.00000000       0.00000000
B        1.42951835       0.00000000       0.65093164
B       -0.73178012       1.22801489       0.65093164
B       -0.37769198      -1.37872096       0.65093164
B        1.15753998       0.83882293      -0.65093164
B       -1.31313585       0.56497518      -0.65093164
B        0.50318290      -1.33803202      -0.65093164
B        0.00000000       0.00000000      -1.67669703
8
Lattice="10.0 0.0 0.0 0.0 10.0 0.0 0.0 0.0 10.0" Properties=species:S:1:pos:R:3 pars="(8, '+', 1.407645621139829, 0.8983924911078909, 1.7537127817211524, 2.745253999476153, 2.032815265984674, 1.3986927168007206)" energy_hf=-196.7509359898179 pbc="F F F"
B        0.00000000       0.00000000       0.00000000
B        1.40764562       0.00000000       0.89839249
B       -0.62746687       1.26006013       0.89839249
B       -1.34890187      -0.40240519       0.89839249
B       -1.29852579       0.54341233      -0.89839249
B        0.09238811      -1.40461049      -0.89839249
B        1.39968170      -0.14952370      -0.89839249
B        0.00000000       0.00000000       1.75371278
8
Lattice="10.0 0.0 0.0 0.0 10.0 0.0 0.0 0.0 10.0" Properties=species:S:1:pos:R:3 pars="(8, '-', 1.407645621139829, 0.8983924911078909, 1.7537127817211524, 2.745253999476153, 2.032815265984674, 1.3986927168007206)" energy_hf=-196.71173338116023 pbc="F F F"
B        0.00000000       0.00000000       0.00000000
B        1.40764562       0.00000000       0.89839249
B       -0.62746687       1.26006013       0.89839249
B       -1.34890187      -0.40240519       0.89839249
B       -1.29852579       0.54341233      -0.89839249
B        0.09238811      -1.40461049      -0.89839249
B        1.39968170      -0.14952370      -0.89839249
B        0.00000000       0.00000000      -1.75371278
8
Lattice="10.0 0.0 0.0 0.0 10.0 0.0 0.0 0.0 10.0" Properties=species:S:1:pos:R:3 pars="(9, '+', 1.4731013971224969, 0.9306551066818776, 1.7897331840070518, 0.6357516394940701, 2.8691863350129134, 1.705618214414066)" energy_hf=-196.73382404208797 pbc="F F F"
B        0.00000000       0.00000000       0.00000000
B        1.47310140       0.00000000       0.93065511
B       -1.41878265       0.39633764       0.93065511
B       -0.20203700      -1.45918086       0.93065511
B        1.18529512       0.87470179      -0.93065511
B       -1.37692720      -0.52354485      -0.93065511
B        0.70387187      -1.29406032      -0.93065511
B        0.00000000       0.00000000       1.78973318
8
Lattice="10.0 0.0 0.0 0.0 10.0 0.0 0.0 0.0 10.0" Properties=species:S:1:pos:R:3 pars="(9, '-', 1.4731013971224969, 0.9306551066818776, 1.7897331840070518, 0.6357516394940701, 2.8691863350129134, 1.705618214414066)" energy_hf=-196.7338565787066 pbc="F F F"
B        0.00000000       0.00000000       0.00000000
B        1.47310140       0.00000000       0.93065511
B       -1.41878265       0.39633764       0.93065511
B       -0.20203700      -1.45918086       0.93065511
B        1.18529512       0.87470179      -0.93065511
B       -1.37692720      -0.52354485      -0.93065511
B        0.70387187      -1.29406032      -0.93065511
B        0.00000000       0.00000000      -1.78973318
8
Lattice="10.0 0.0 0.0 0.0 10.0 0.0 0.0 0.0 10.0" Properties=species:S:1:pos:R:3 pars="(10, '+', 1.4840160509683262, 0.9456880525983795, 1.5770851674452389, 2.241693120598886, 2.6981345086077866, 1.9362966696371)" energy_hf=-196.75318392648165 pbc="F F F"
B        0.00000000       0.00000000       0.00000000
B        1.48401605       0.00000000       0.94568805
B       -1.34047207       0.63674035       0.94568805
B       -0.11557348      -1.47950884       0.94568805
B       -0.92259596       1.16237702      -0.94568805
B        0.33462021      -1.44579838      -0.94568805
B        1.23069741       0.82926927      -0.94568805
B        0.00000000       0.00000000       1.57708517
8
Lattice="10.0 0.0 0.0 0.0 10.0 0.0 0.0 0.0 10.0" Properties=species:S:1:pos:R:3 pars="(10, '-', 1.4840160509683262, 0.9456880525983795, 1.5770851674452389, 2.241693120598886, 2.6981345086077866, 1.9362966696371)" energy_hf=-196.7504307169237 pbc="F F F"
B        0.00000000       0.00000000       0.00000000
B        1.48401605       0.00000000       0.94568805
B       -1.34047207       0.63674035       0.94568805
B       -0.11557348      -1.47950884       0.94568805
B       -0.92259596       1.16237702      -0.94568805
B        0.33462021      -1.44579838      -0.94568805
B        1.23069741       0.82926927      -0.94568805
B        0.00000000       0.00000000      -1.57708517
8
Lattice="10.0 0.0 0.0 0.0 10.0 0.0 0.0 0.0 10.0" Properties=species:S:1:pos:R:3 pars="(11, '+', 1.4148451821922816, 1.0687154673443733, 1.5867231271263382, 1.9477088124472404, 1.435909719059187, 2.820664287864993)" energy_hf=-196.66729121161683 pbc="F F F"
B        0.00000000       0.00000000       0.00000000
B        1.41484518       0.00000000       1.06871547
B        0.19026548       1.40199356       1.06871547
B       -0.62280668      -1.27039314       1.06871547
B       -0.52073581       1.31553073      -1.06871547
B       -1.37360871      -0.33909587      -1.06871547
B        1.41044333      -0.11151901      -1.06871547
B        0.00000000       0.00000000       1.58672313
8
Lattice="10.0 0.0 0.0 0.0 10.0 0.0 0.0 0.0 10.0" Properties=species:S:1:pos:R:3 pars="(11, '-', 1.4148451821922816, 1.0687154673443733, 1.5867231271263382, 1.9477088124472404, 1.435909719059187, 2.820664287864993)" energy_hf=-196.67908186206827 pbc="F F F"
B        0.00000000       0.00000000       0.00000000
B        1.41484518       0.00000000       1.06871547
B        0.19026548       1.40199356       1.06871547
B       -0.62280668      -1.27039314       1.06871547
B       -0.52073581       1.31553073      -1.06871547
B       -1.37360871      -0.33909587      -1.06871547
B        1.41044333      -0.11151901      -1.06871547
B        0.00000000       0.00000000      -1.58672313
8
Lattice="10.0 0.0 0.0 0.0 10.0 0.0 0.0 0.0 10.0" Properties=species:S:1:pos:R:3 pars="(12, '+', 1.37683017299009, 0.985031533008476, 1.6078279126182928, 0.177480537727626, 1.4156242160764516, 2.553676719291239)" energy_hf=-196.7797529370977 pbc="F F F"
B        0.00000000       0.00000000       0.00000000
B        1.37683017       0.00000000       0.98503153
B        0.21278930       1.36028748       0.98503153
B       -0.93151527      -1.01387407       0.98503153
B        1.35520241       0.24307971      -0.98503153
B       -0.03071237       1.37648759      -0.98503153
B       -0.73788296      -1.16240701      -0.98503153
B        0.00000000       0.00000000       1.60782791
8
Lattice="10.0 0.0 0.0 0.0 10.0 0.0 0.0 0.0 10.0" Properties=species:S:1:pos:R:3 pars="(12, '-', 1.37683017299009, 0.985031533008476, 1.6078279126182928, 0.177480537727626, 1.4156242160764516, 2.553676719291239)" energy_hf=-196.77859357980182 pbc="F F F"
B        0.00000000       0.00000000       0.00000000
B        1.37683017       0.00000000       0.98503153
B        0.21278930       1.36028748       0.98503153
B       -0.93151527      -1.01387407       0.98503153
B        1.35520241       0.24307971      -0.98503153
B       -0.03071237       1.37648759      -0.98503153
B       -0.73788296      -1.16240701      -0.98503153
B        0.00000000       0.00000000      -1.60782791
8
Lattice="10.0 0.0 0.0 0.0 10.0 0.0 0.0 0.0 10.0" Properties=species:S:1:pos:R:3 pars="(13, '+', 1.4509416014348484, 0.9650766339878127, 1.7508270920013018, 1.8713751173899216, 2.822145000606344, 1.8337580229092234)" energy_hf=-196.7669693294723 pbc="F F F"
B        0.00000000       0.00000000       0.00000000
B        1.45094160       0.00000000       0.96507663
B       -1.37753705       0.45565690       0.96507663
B       -0.08191425      -1.44862748       0.96507663
B       -0.42958477       1.38588905      -0.96507663
B       -0.02737599      -1.45068332      -0.96507663
B        1.40793129       0.35065798      -0.96507663
B        0.00000000       0.00000000       1.75082709
8
Lattice="10.0 0.0 0.0 0.0 10.0 0.0 0.0 0.0 10.0" Properties=species:S:1:pos:R:3 pars="(13, '-', 1.4509416014348484, 0.9650766339878127, 1.7508270920013018, 1.8713751173899216, 2.822145000606344, 1.8337580229092234)" energy_hf=-196.77588287871225 pbc="F F F"
B        0.00000000       0.00000000       0.00000000
B        1.45094160       0.00000000       0.96507663
B       -1.37753705       0.45565690       0.96507663
B       -0.08191425      -1.44862748       0.96507663
B       -0.42958477       1.38588905      -0.96507663
B       -0.02737599      -1.45068332      -0.96507663
B        1.40793129       0.35065798      -0.96507663
B        0.00000000       0.00000000      -1.75082709
8
Lattice="10.0 0.0 0.0 0.0 10.0 0.0 0.0 0.0 10.0" Properties=species:S:1:pos:R:3 pars="(14, '+', 1.5201476964374914, 0.8082542901524683, 1.6150792282780575, 0.19193593526786723, 2.6822749214148343, 1.5217379155887147)" energy_hf=-196.82926023672104 pbc="F F F"
B        0.00000000       0.00000000       0.00000000
B        1.52014770       0.00000000       0.80825429
B       -1.36259226       0.67393720       0.80825429
B       -0.73994617      -1.32790387       0.80825429
B        1.49223288       0.28998282      -0.80825429
B       -1.46613069       0.40163393      -0.80825429
B       -0.47304791      -1.44467114      -0.80825429
B        0.00000000       0.00000000       1.61507923
8
Lattice="10.0 0.0 0.0 0.0 10.0 0.0 0.0 0.0 10.0" Properties=species:S:1:pos:R:3 pars="(14, '-', 1.5201476964374914, 0.8082542901524683, 1.6150792282780575, 0.19193593526786723, 2.6822749214148343, 1.5217379155887147)" energy_hf=-196.83995820796162 pbc="F F F"
B        0.00000000       0.00000000       0.00000000
B        1.52014770       0.00000000       0.80825429
B       -1.36259226       0.67393720       0.80825429
B       -0.73994617      -1.32790387       0.80825429
B        1.49223288       0.28998282      -0.80825429
B       -1.46613069       0.40163393      -0.80825429
B       -0.47304791      -1.44467114      -0.80825429
B        0.00000000       0.00000000      -1.61507923
8
Lattice="10.0 0.0 0.0 0.0 10.0 0.0 0.0 0.0 10.0" Properties=species:S:1:pos:R:3 pars="(15, '+', 1.339998510617725, 0.7462281406952369, 1.7340865973416075, 2.7288547001161034, 1.6697644787058215, 1.6596571843391943)" energy_hf=-196.7466267478104 pbc="F F F"
B        0.00000000       0.00000000       0.00000000
B        1.33999851       0.00000000       0.74622814
B       -0.13240079       1.33344143       0.74622814
B       -1.31643052      -0.25021327       0.74622814
B       -1.22747349       0.53749868      -0.74622814
B       -0.41358594      -1.27457549      -0.74622814
B        1.30624987      -0.29884325      -0.74622814
B        0.00000000       0.00000000       1.73408660
8
Lattice="10.0 0.0 0.0 0.0 10.0 0.0 0.0 0.0 10.0" Properties=species:S:1:pos:R:3 pars="(15, '-', 1.339998510617725, 0.7462281406952369, 1.7340865973416075, 2.7288547001161034, 1.6697644787058215, 1.6596571843391943)" energy_hf=-196.74545063870613 pbc="F F F"
B        0.00000000       0.00000000       0.00000000
B        1.33999851       0.00000000       0.74622814
B       -0.13240079       1.33344143       0.74622814
B       -1.31643052      -0.25021327       0.74622814
B       -1.22747349       0.53749868      -0.74622814
B       -0.41358594      -1.27457549      -0.74622814
B        1.30624987      -0.29884325      -0.74622814
B        0.00000000       0.00000000      -1.73408660
8
Lattice="10.0 0.0 0.0 0.0 10.0 0.0 0.0 0.0 10.0" Properties=species:S:1:pos:R:3 pars="(16, '+', 1.4117879350660254, 1.0051571685890655, 1.7592128565233542, 1.9835394791398497, 1.1775825107747735, 1.2165956741281878)" energy_hf=-196.8002892670328 pbc="F F F"
B        0.00000000       0.00000000       0.00000000
B        1.41178794       0.00000000       1.00515717
B        0.54093916       1.30404371       1.00515717
B       -1.03547419       0.95965534       1.00515717
B       -0.56630150       1.29323153      -1.00515717
B       -1.41151872      -0.02756953      -1.00515717
B       -0.46371409      -1.33345957      -1.00515717
B        0.00000000       0.00000000       1.75921286
8
Lattice="10.0 0.0 0.0 0.0 10.0 0.0 0.0 0.0 10.0" Properties=species:S:1:pos:R:3 pars="(16, '-', 1.4117879350660254, 1.0051571685890655, 1.7592128565233542, 1.9835394791398497, 1.1775825107747735, 1.2165956741281878)" energy_hf=-196.79695212230462 pbc="F F F"
B        0.00000000       0.00000000       0.00000000
B        1.41178794       0.00000000       1.00515717
B        0.54093916       1.30404371       1.00515717
B       -1.03547419       0.95965534       1.00515717
B       -0.56630150       1.29323153      -1.00515717
B       -1.41151872      -0.02756953      -1.00515717
B       -0.46371409      -1.33345957      -1.00515717
B        0.00000000       0.00000000      -1.75921286
8
Lattice="10.0 0.0 0.0 0.0 10.0 0.0 0.0 0.0 10.0" Properties=species:S:1:pos:R:3 pars="(17, '+', 1.4275005836377286, 0.8929105064156851, 1.6347996157259492, 0.5945860761473715, 1.1204597741813525, 2.584098529897144)" energy_hf=-196.76299198050788 pbc="F F F"
B        0.00000000       0.00000000       0.00000000
B        1.42750058       0.00000000       0.89291051
B        0.62134612       1.28517972       0.89291051
B       -1.20720309      -0.76185210       0.89291051
B        1.18251356       0.79963717      -0.89291051
B       -0.20520291       1.41267466      -0.89291051
B       -0.57325985      -1.30733740      -0.89291051
B        0.00000000       0.00000000       1.63479962
8
Lattice="10.0 0.0 0.0 0.0 10.0 0.0 0.0 0.0 10.0" Properties=species:S:1:pos:R:3 pars="(17, '-', 1.4275005836377286, 0.8929105064156851, 1.6347996157259492, 0.5945860761473715, 1.1204597741813525, 2.584098529897144)" energy_hf=-196.76315785673842 pbc="F F F"
B        0.00000000       0.00000000       0.00000000
B        1.42750058       0.00000000       0.89291051
B        0.62134612       1.28517972       0.89291051
B       -1.20720309      -0.76185210       0.89291051
B        1.18251356       0.79963717      -0.89291051
B       -0.20520291       1.41267466      -0.89291051
B       -0.57325985      -1.30733740      -0.89291051
B        0.00000000       0.00000000      -1.63479962
8
Lattice="10.0 0.0 0.0 0.0 10.0 0.0 0.0 0.0 10.0" Properties=species:S:1:pos:R:3 pars="(18, '+', 1.5057661953211436, 0.8916862372634424, 1.5532049530740468, 3.033521903377158, 1.5403562474702603, 2.8371895328390173)" energy_hf=-196.67596064594437 pbc="F F F"
B        0.00000000       0.00000000       0.00000000
B        1.50576620       0.00000000       0.89168624
B        0.04582856       1.50506863       0.89168624
B       -0.49482652      -1.42213873       0.89168624
B       -1.49698161       0.16241271      -0.89168624
B       -0.20789867      -1.49134502      -0.89168624
B        0.64533232       1.36046978      -0.89168624
B        0.00000000       0.00000000       1.55320495
8
Lattice="10.0 0.0 0.0 0.0 10.0 0.0 0.0 0.0 10.0" Properties=species:S:1:pos:R:3 pars="(18, '-', 1.5057661953211436, 0.8916862372634424, 1.5532049530740468, 3.033521903377158, 1.5403562474702603, 2.8371895328390173)" energy_hf=-196.6833787530097 pbc="F F F"
B        0.00000000       0.00000000       0.00000000
B        1.50576620       0.00000000       0.89168624
B        0.04582856       1.50506863       0.89168624
B       -0.49482652      -1.42213873       0.89168624
B       -1.49698161       0.16241271      -0.89168624
B       -0.20789867      -1.49134502      -0.89168624
B        0.64533232       1.36046978      -0.89168624
B        0.00000000       0.00000000      -1.55320495
8
Lattice="10.0 0.0 0.0 0.0 10.0 0.0 0.0 0.0 10.0" Properties=species:S:1:pos:R:3 pars="(19, '+', 1.3862265967764074, 0.9564772439613889, 1.7558188187072998, 2.5161803620361525, 2.8692475256392918, 1.6520355974918584)" energy_hf=-196.73374652613248 pbc="F F F"
B        0.00000000       0.00000000       0.00000000
B        1.38622660       0.00000000       0.95647724
B       -1.33513407       0.37288229       0.95647724
B       -0.26330644      -1.36099004       0.95647724
B       -1.12384415       0.81154082      -0.95647724
B        0.86412525      -1.08393345      -0.95647724
B        1.01023483       0.94923642      -0.95647724
B        0.00000000       0.00000000       1.75581882
8
Lattice="10.0 0.0 0.0 0.0 10.0 0.0 0.0 0.0 10.0" Properties=species:S:1:pos:R:3 pars="(19, '-', 1.3862265967764074, 0.9564772439613889, 1.7558188187072998, 2.5161803620361525, 2.8692475256392918, 1.6520355974918584)" energy_hf=-196.7395486769582 pbc="F F F"
B        0.00000000       0.00000000       0.00000000
B        1.38622660       0.00000000       0.95647724
B       -1.33513407       0.37288229       0.95647724
B       -0.26330644      -1.36099004       0.95647724
B       -1.12384415       0.81154082      -0.95647724
B        0.86412525      -1.08393345      -0.95647724
B        1.01023483       0.94923642      -0.95647724
B        0.00000000       0.00000000      -1.75581882
8
Lattice="10.0 0.0 0.0 0.0 10.0 0.0 0.0 0.0 10.0" Properties=species:S:1:pos:R:3 pars="(20, '+', 1.484343895067396, 0.9423360758202635, 1.7239161032622445, 2.688941706491074, 1.8823680873077104, 2.42162535870479)" energy_hf=-196.72695084291857 pbc="F F F"
B        0.00000000       0.00000000       0.00000000
B        1.48434390       0.00000000       0.94233608
B       -0.45503319       1.41287706       0.94233608
B       -0.58948837      -1.36227026       0.94233608
B       -1.33485691       0.64917935      -0.94233608
B       -0.20871606      -1.46959668      -0.94233608
B        1.12591182       0.96726386      -0.94233608
B        0.00000000       0.00000000       1.72391610
8
Lattice="10.0 0.0 0.0 0.0 10.0 0.0 0.0 0.0 10.0" Properties=species:S:1:pos:R:3 pars="(20, '-', 1.484343895067396, 0.9423360758202635, 1.7239161032622445, 2.688941706491074, 1.8823680873077104, 2.42162535870479)" energy_hf=-196.72482707289146 pbc="F F F"
B        0.00000000       0.00000000       0.00000000
B        1.48434390       0.00000000       0.94233608
B       -0.45503319       1.41287706       0.94233608
B       -0.58948837      -1.36227026       0.94233608
B       -1.33485691       0.64917935      -0.94233608
B       -0.20871606      -1.46959668      -0.94233608
B        1.12591182       0.96726386      -0.94233608
B        0.00000000       0.00000000      -1.72391610
8
Lattice="10.0 0.0 0.0 0.0 10.0 0.0 0.0 0.0 10.0" Properties=species:S:1:pos:R:3 pars="(21, '+', 1.488300457402022, 0.7632058825198771, 1.7202412009883832, 0.21235104805951532, 2.6780815115435757, 1.3227996934336252)" energy_hf=-196.85101152381142 pbc="F F F"
B        0.00000000       0.00000000       0.00000000
B        1.48830046       0.00000000       0.76320588
B       -1.33126722       0.66540653       0.76320588
B       -0.97182518      -1.12720631       0.76320588
B        1.45487042       0.31367230      -0.76320588
B       -1.44160467       0.36988407      -0.76320588
B       -0.71242759      -1.30670776      -0.76320588
B        0.00000000       0.00000000       1.72024120
8
Lattice="10.0 0.0 0.0 0.0 10.0 0.0 0.0 0.0 10.0" Properties=species:S:1:pos:R:3 pars="(21, '-', 1.488300457402022, 0.7632058825198771, 1.7202412009883832, 0.21235104805951532, 2.6780815115435757, 1.3227996934336252)" energy_hf=-196.8480129087869 pbc="F F F"
B        0.00000000       0.00000000       0.00000000
B        1.48830046       0.00000000       0.76320588
B       -1.33126722       0.66540653       0.76320588
B       -0.97182518      -1.12720631       0.76320588
B        1.45487042       0.31367230      -0.76320588
B       -1.44160467       0.36988407      -0.76320588
B       -0.71242759      -1.30670776      -0.76320588
B        0.00000000       0.00000000      -1.72024120
8
Lattice="10.0 0.0 0.0 0.0 10.0 0.0 0.0 0.0 10.0" Properties=species:S:1:pos:R:3 pars="(23, '+', 1.465560688644157, 0.9976501790594354, 1.5247291656488122, 2.790730259473334, 1.2861172751633911, 2.51366972525178)" energy_hf=-196.68890914320974 pbc="F F F"
B        0.00000000       0.00000000       0.00000000
B        1.46556069       0.00000000       0.99765018
B        0.41160189       1.40657457       0.99765018
B       -1.15940216      -0.89646794       0.99765018
B       -1.37627382       0.50372462      -0.99765018
B       -0.86997636      -1.17941056      -0.99765018
B        1.39689051       0.44335656      -0.99765018
B        0.00000000       0.00000000       1.52472917
8
Lattice="10.0 0.0 0.0 0.0 10.0 0.0 0.0 0.0 10.0" Properties=species:S:1:pos:R:3 pars="(23, '-', 1.465560688644157, 0.9976501790594354, 1.5247291656488122, 2.790730259473334, 1.2861172751633911, 2.51366972525178)" energy_hf=-196.6868258067621 pbc="F F F"